ATOMS
N             0.0000000000        0.0000000000        0.0000000000
N             0.0000000000        0.0000000000        value_01